23
Properties=species:S:1:pos:R:3:molID:I:1:forces:R:3 Nmols=2 Comp=EMC(1):VC(1) energy=-1208.91552734375 pbc="F F F"
C        1.40669906      -0.94852668       1.34895813        0       2.17154837      -1.36405408       1.50390112
O        2.40962720      -1.28579569       1.94060218        0      -0.98485231      -0.05537128       0.87579250
O        0.12933208      -1.04362166       1.73212218        0       0.73323059       0.06802484      -1.04870439
O        1.47688103      -0.50123066       0.16977718        0      -1.54230940       1.81121182      -4.14047241
C       -0.04094892      -1.35957861       3.04710722        0      -2.29712939      -3.69626331       2.03006101
C        2.63086009      -0.44012067      -0.69729584        0       0.19212401      -0.35025126       1.14660358
C       -1.63370895      -1.50622070       3.27897310        0       1.36990833       3.04673076      -5.62516689
H        0.40394607      -2.40141869       3.38785219        0      -0.51474798       1.30759835      -1.03570628
H        0.45089409      -0.68009967       3.66465807        0       0.46945056       1.57544684       1.23331630
H        3.36547112       0.15588234      -0.10162982        0      -0.10882875      -0.57835144      -1.01349592
H        2.91504097      -1.48023367      -0.91267079        0       0.38433033       0.35333210       0.27591133
H       -1.94975197      -1.75659466       4.21205616        0      -0.56500763      -1.28645849       1.90430021
H       -2.05149293      -0.44585866       3.06940317        0       0.48799765      -1.23858285       0.59631252
H       -1.99269390      -2.01510978       2.26033020        0       0.40405160       0.17378053       2.54915285
H        2.40328908      -0.00330166      -1.68040287        0      -0.21078110       0.24196367       0.74289912
C       -1.72449291       1.32071137      -0.47724482        1      -2.68035674      -1.89593256       1.01173806
O       -0.49731091       1.17084932      -0.94350183        1       2.30589151       0.93333304       0.81616354
C       -0.59555292       1.32678330      -2.25614190        1       3.97675133      -0.92897046      -3.71959901
O       -1.80939388       1.20327735      -2.66971779        1      -2.83434415      -0.61955744       0.87176204
C       -2.54717183       0.93277031      -1.49749577        1      -1.66122735       2.43136835      -1.44510257
O        0.29996908       1.35905635      -3.09270382        1      -0.90737343       0.41794139       2.28778338
H       -3.61379600       1.21128833      -1.72711182        1       1.20343864      -0.78462571       0.75769174
H       -1.99838686       1.11892533       0.56570417        1       0.60823536       0.43768695      -0.57514203
23
Properties=species:S:1:pos:R:3:molID:I:1:forces:R:3 Nmols=2 Comp=EMC(1):VC(1) energy=-1208.1798095703125 pbc="F F F"
C       -0.69763237       2.77908134       1.23040593        0      -3.38998866       3.38593578      -0.49202603
O        0.41091162       2.90825939       0.90179396        0       3.21048903      -1.51895750      -0.20762527
O       -1.54747343       1.82928336       1.18552589        0      -1.09865808      -0.17336741       0.86925966
O       -1.47622144       3.99724841       1.42502689        0       1.27945852      -1.99880791      -0.12509024
C       -1.05164540       0.55792034       1.01647294        0       2.83154392      -1.23496878       0.18718113
C       -0.58076239       5.05312920       1.23254991        0      -0.36492091       0.35401428       1.62946248
C       -2.08044529      -0.48666269       1.21495795        0      -0.37454301      -1.39738417       1.55100250
H       -0.58454442       0.48634732       0.04012394        0      -0.04388690      -0.00406349      -0.83741236
H       -0.13467740       0.35334331       1.69473493        0      -1.09631443       0.55693060      -0.20864445
H       -0.06260440       5.23490810       2.17521095        0       0.25299951       0.17494342       0.31737560
H        0.14888860       4.83289528       0.50576496        0       0.57722682      -0.15420485      -0.97706646
H       -1.73312235      -1.46158373       0.79107195        0       0.14227700       0.45109153       1.15457904
H       -2.35824633      -0.45531067       2.34884787        0       0.28750128      -0.64413923      -2.09489179
H       -2.94100738      -0.36219668       0.61415994        0      -1.23941827       0.76170355      -0.20931512
H       -1.12611735       5.90846729       0.99187595        0      -0.97376597       1.44127440      -0.55678821
C       -0.08214340      -3.62099671      -1.75664902        1       3.76235628      -1.15258479       0.22763550
O        0.70271158      -2.58156061      -2.27889895        1      -4.28554010      -1.09912467       0.57684541
C        1.51702058      -2.24412274      -1.30315304        1       2.44830704      -2.97934222      -1.93719506
O        1.84426665      -3.32881665      -0.58488607        1      -3.50601816      -3.43397641       0.08187199
C        0.80931163      -4.41899586      -1.06022000        1       0.75092584       3.65682697       1.64900661
O        2.26134372      -1.36615074      -1.48889709        1       1.35360074       3.41585541       0.92559719
H        0.68980759      -5.35269451      -0.45185906        1       0.35685205       1.46609974      -0.90350449
H       -0.94944340      -3.98191357      -2.21206117        1      -0.88048339       0.12624471      -0.62025726
22
Properties=species:S:1:pos:R:3:molID:I:1:forces:R:3 Nmols=2 Comp=DMC(1):EC(1) energy=-1152.8004150390625 pbc="F F F"
C        3.61284208      -2.07550406       0.22518750        0      -1.85464299      -1.22113109      -1.27630401
C        3.75244713      -3.59650588       0.06730349        0       0.70219535       0.21394497      -1.33932924
O        3.49376106      -3.82976699      -1.34206152        0       0.49414420       0.23452115       1.16841567
C        3.66125512      -2.66054893      -1.99677956        0      -1.79047036      -0.86394072      -1.89913440
O        3.62495208      -2.64322686      -3.21021342        0       0.58256310       0.62829292       2.15888023
O        3.58672094      -1.63819695      -1.13761151        0       0.99087405       0.59259963      -0.20090865
H        2.69311810      -1.68178594       0.65247649        0      -0.30584794      -0.22278166       0.13774051
H        4.39196014      -1.77501500       0.83347249        0       1.83106625       1.15213871       0.69173741
H        4.79914284      -3.87108588       0.18849850        0       0.41222632      -0.03792924       0.25020456
H        3.20638895      -4.23945999       0.70763350        0      -1.06210780      -0.47571445       0.30869883
C       -3.46759295       0.39978606       1.80026948        1       1.53620422      -0.06969047       0.22724092
O       -2.97357607       1.54546702       1.06417453        1      -1.32287872       0.77521056       0.11033022
C       -3.68755794       2.70816302       1.22221446        1       0.36968696      -0.79510224       0.40162611
O       -4.68780279       2.74251199       1.89068353        1       0.53629589       0.68187821      -0.67566752
O       -3.02453804       3.67995095       0.56466550        1      -0.13790202      -1.61449623       0.10085428
C       -3.40832901       5.01135302       0.69437551        1      -0.47549772       1.43784666       0.09941328
H       -2.75606489      -0.34492496       1.41046655        1      -0.41048345      -0.19651446       0.27965075
H       -3.22423792       0.57276303       2.88537145        1      -0.59090799      -0.21977085      -0.77893847
H       -4.49957609       0.04107006       1.62627149        1       0.47692168       0.72296399      -0.00716087
H       -3.64559507       5.22525692       1.76454043        1      -0.26415098      -0.02910043      -0.76254195
H       -2.52239585       5.64242887       0.43704748        1      -0.69708806      -0.52581990      -0.04474165
H       -4.26611900       5.24361420      -0.02387951        1       0.97979969      -0.16740511       1.04993522
10
Properties=species:S:1:pos:R:3:molID:I:1:forces:R:3 Nmols=1 Comp=EC(1) energy=-562.266845703125 pbc="F F F"
C        0.04702185       0.83415061      -1.35688162        0       0.04159826       0.07214236      -1.71380472
O       -0.50411916       0.92041564      -0.09821067        0      -1.85740292       1.33221173       0.48335949
C       -0.22546014      -0.08585037       0.71164131        0       0.00677034       0.65327096       2.70811939
O        0.56264788      -0.94790435       0.08703933        0       0.36891651      -1.14075387       0.43821099
C        0.66519684      -0.67460239      -1.26913261        0      -1.73578715       1.96828198      -1.32015884
H       -0.69738817       1.32375765      -2.22990465        0       1.34838390      -2.00389004       2.13535333
H        0.84714788       1.58321857      -1.37349868        0       0.40676275      -0.33617538      -0.15513775
O       -0.53938913      -0.08326737       1.89579630        0       0.62886584      -0.46045423      -2.85407472
H        0.02858885      -1.36701536      -1.84039462        0       0.13895750       0.10502106       0.10349241
H        1.65750480      -0.65968937      -1.67245662        0       0.65293419      -0.18965362       0.17463966
34
Properties=species:S:1:pos:R:3:molID:I:1:forces:R:3 Nmols=3 Comp=DEC(1):VC(2) energy=-1828.2530517578125 pbc="F F F"
C       -0.09173039      -1.03795123       1.13215828        0       0.40740216       2.10339904       0.17473899
O        0.66122359       0.21716379       1.06796718        0      -1.79638422      -2.88949013       0.05805552
C        2.00051570      -0.15963122       1.04819417        0      -5.35715485      -1.74011135       0.15144986
O        2.12524271      -1.43898916       1.02832723        0      -1.59528780      -2.48564434      -0.27606237
C        0.82325763      -1.99034119       1.03538823        0       1.35714948      -3.16949654       0.16918020
O        2.79736471       0.62670475       1.13556421        0       5.54614735       4.75541925       0.24891542
H        0.89998060      -3.19638634       1.03570819        0      -0.63074350       3.52509499      -0.00548828
H       -1.19878638      -0.96512020       1.35657227        0       2.05769968      -0.11083032      -0.47358966
C       -0.41216639       2.13632989      -4.04738474        1      -3.25999951       0.22998232       1.61727285
O       -1.54790235       1.62400174      -3.95587182        1       3.34765720       0.92792201      -0.37594354
O        0.27796960       2.39783573      -5.12207270        1       0.16542339      -0.42293650      -0.20772076
O        0.20427561       2.77221179      -3.01263165        1      -0.49837053       0.44067442      -0.74245650
C       -0.13921839       1.75725079      -6.37238789        1       0.15579891       2.36490965       0.80573505
C       -0.32927039       2.62372971      -1.66351080        1       0.87382209      -1.79176307      -0.73987055
C        1.19375861       1.73544383      -7.19138670        1      -1.77771115      -0.41568488       0.04647064
H       -0.50711936       0.80607575      -6.08773184        1      -0.09260371      -1.29534423      -0.07903016
H       -1.02609134       2.38092375      -6.65819073        1       0.97112131      -0.35075921      -0.84281558
C        0.74890864       3.15720272      -0.68642378        1       0.26452589       3.43230677      -1.43197060
H       -1.45247042       2.74032784      -1.61172080        1       1.29323781       1.06036139       0.34703779
H       -0.24573039       1.54906976      -1.64900982        1      -0.17898339      -1.08489895       1.09106493
H        0.41137761       3.41774178       0.31939122        1      -0.43326509      -0.25385594      -0.48476297
H        1.72883761       2.71294188      -0.58148378        1      -0.41731024      -1.17497575      -0.22446463
H        1.13165760       4.14930296      -1.22746277        1      -1.15779257      -1.47880065       1.08715808
H        0.91526759       1.30510473      -8.22597790        1       1.06510830       0.68753922       1.66729271
H        1.72747660       2.70354986      -7.21263790        1      -0.70827866      -0.36181474      -0.50650942
H        1.76877558       1.13842678      -6.47950077        1       0.38761771      -0.51285565      -1.02649009
C       -1.03568435      -1.24044025       5.12450600        2      -2.74985671      -4.08096886       0.01452923
O       -0.75859940      -1.73307025       3.81813025        2      -1.93037796       0.32602215       4.08183432
C       -1.41239440      -2.91287422       3.89505816        2       0.67265218      -1.23400879      -1.51370823
O       -2.24688435      -3.16512823       4.90641403        2       0.98537445       2.85857177       1.79721355
C       -1.91975343      -2.14320517       5.82747746        2       2.38519335       1.53680384      -4.12965965
O       -1.15433335      -3.77282715       3.12227416        2       0.04061830      -0.91565537      -1.19456673
H       -2.43766642      -2.04236126       6.73720312        2      -0.27453202      -0.05425210       0.42963099
H       -0.57101941      -0.39238423       5.46437836        2       0.88210034       1.57513952       0.46752968
32
Properties=species:S:1:pos:R:3:molID:I:1:forces:R:3 Nmols=4 Comp=VC(4) energy=-2135.546630859375 pbc="F F F"
C       -0.18384601       2.39934206       2.87055969        0       0.04630303       1.25273871       1.12923622
C       -1.00316405       3.14677811       2.14002562        0      -0.95738971       0.76595020      -0.23846245
O       -1.17628205       4.41016912       2.71089673        0       1.58569169      -1.96912801      -0.81676847
C       -0.12086101       4.43738317       3.60548162        0      -1.49791408       2.76169395       1.30022788
O        0.24541499       5.47160482       4.09773779        0       0.05111325      -1.17649794      -0.52372050
O        0.23488699       3.22132993       3.93537164        0       0.82252073      -1.66866922      -0.93798327
H        0.13492399       1.39397001       2.76868176        0       0.35236105      -0.27936327       0.42689985
H       -1.47591197       2.87969899       1.22259974        0      -0.51156849       0.67845392      -0.03708029
C        0.02037599       0.48658204      -1.62798727        1       0.38280612       0.00118445       0.57462573
C       -0.25892201       1.33652198      -0.61137629        1      -0.37555724      -0.45475006      -0.28024945
O       -0.10946101       2.66759610      -1.08563530        1      -0.42406970      -1.73567736       0.59511900
C        0.27459899       2.57405710      -2.36491919        1       0.86194170      -0.75301969      -0.22545046
O        0.59739196       3.44374299      -3.10663629        1      -0.42778087      -0.06594396       0.35100889
O        0.39864299       1.23445106      -2.70981741        1      -0.41594768      -0.13621986       0.36489439
H        0.15245000      -0.63944596      -1.63558424        1       0.13668612       3.48327303      -1.02059174
H       -0.70971900       1.02950001       0.36996269        1       0.77272391       0.70639288      -1.51241183
C       -1.53499103      -2.18794107      -0.83939826        2       3.28987265      -1.52915955      -0.68009794
C       -2.65085101      -1.52059495      -0.90405232        2       0.45238209       3.21806479       1.39046907
O       -3.64232898      -2.19272709      -1.38567626        2      -1.96698952      -2.11326814      -1.33036232
C       -3.10100198      -3.38501406      -1.74439335        2      -0.43123376      -1.95513976      -0.66332299
O       -3.65989709      -4.32537079      -2.21766233        2      -0.38346386       0.66254997       0.08435917
O       -1.79078305      -3.43165493      -1.46657932        2       0.73730087       1.72202492       1.03430045
H       -0.46613801      -1.84036899      -0.73343331        2      -2.46211982      -2.09065676       0.66873729
H       -2.85133791      -0.50869095      -0.68429327        2      -0.07711202       0.81127512       0.31476736
C        2.04542804      -1.78058195       0.30450469        3      -1.08299530       1.18470836      -0.79216921
C        2.20972991      -2.20262599      -0.92132527        3       1.06823897      -1.13757932      -2.63452578
O        3.13455200      -3.29267287      -0.90597731        3      -1.74666691       1.43483877      -1.28740191
C        3.29816103      -3.54355001       0.35827771        3       1.23498034      -0.54985726       1.16869736
O        3.92212296      -4.43347120       0.83328068        3      -0.10148859      -0.12728834       0.13004684
O        2.71428394      -2.55500293       1.09104776        3       1.45164657      -1.85262167       3.31758499
H        1.47149301      -1.03928494       0.75463468        3      -0.58479929       1.00950837       0.46317962
H        1.93026602      -1.88170993      -1.89532030        3       0.20052852      -0.09781733      -0.33355594
23
Properties=species:S:1:pos:R:3:molID:I:1:forces:R:3 Nmols=2 Comp=EMC(1):VC(1) energy=-1207.0574951171875 pbc="F F F"
C       -0.55368245       2.82042670       1.12392294        0      -4.26942062       1.89685571       1.21787417
O        0.61067361       2.90822387       1.08283591        0       2.09961796      -1.83780873      -0.41531649
O       -1.56757545       1.90141177       1.18038595        0       1.78529119      -0.81450784       0.02438018
O       -1.31567645       3.95195580       1.31354690        0      -0.57421947      -0.19691145       0.11655444
C       -1.15945637       0.53953975       1.10869789        0       2.50085926      -0.96591783      -1.35300326
C       -0.60942441       5.19708776       1.24397397        0      -1.97553551      -0.25437528       0.84422040
C       -2.15627742      -0.55227125       1.12845790        0      -0.35230267      -1.32606697       2.97569561
H       -0.63897443       0.42297876       0.11855894        0      -0.16972506       0.38908470       0.14231277
H       -0.30251741       0.28352877       1.83223498        0      -1.11178184       0.77886581      -0.20378786
H       -0.11624742       5.35216379       2.20685101        0      -0.13571051       0.42566973      -0.09728462
H        0.10057957       4.94698191       0.51334596        0       1.09749329       1.45584643      -1.37790895
H       -1.82345545      -1.57423818       1.06068397        0       1.73497391      -0.32895362       0.04197916
H       -2.64350533      -0.58475226       2.09431791        0      -0.04400694       0.61132735       0.62223816
H       -2.94465542      -0.71663326       0.51023495        0      -2.26785564       1.36604607      -2.65409851
H       -1.42349541       5.98950672       1.03843296        0       1.68232226      -1.19915485       0.11614449
C       -0.31447041      -3.58338714      -1.46412504        1       4.20091248      -1.40402031      -3.51510596
O        0.55831057      -2.43077517      -2.18514109        1      -6.48090839      -2.74611616       0.80422592
C        1.54243159      -2.25624514      -1.45400703        1       5.23745823      -1.33975196       0.82992655
O        1.86569357      -3.50974727      -0.79744804        1      -2.91039753      -1.40340972      -0.53087711
C        0.73536760      -4.48398829      -1.06666505        1       0.06047201       7.84858990      -0.68815005
O        2.37544250      -1.38256919      -1.48509705        1      -1.43630767      -0.77160096       0.64730954
H        0.76844460      -5.31061125      -0.46970305        1      -0.01677744      -1.52360344       0.94363922
H       -1.12763941      -4.02895403      -2.15072918        1       1.34554839       1.33991289       1.50903141
21
Properties=species:S:1:pos:R:3:molID:I:1:forces:R:3 Nmols=2 Comp=PC(1):VC(1) energy=-1181.542724609375 pbc="F F F"
C       -2.77607775      -0.20562433      -1.53955948        0       2.36278105       1.27998424      -3.72618818
O       -2.36679482      -0.44564033      -0.26708949        0       0.29334140       0.30024940       1.42865312
C       -3.39124370      -0.18280132       0.55434549        0      -0.60397708      -4.20389700       3.59727335
O       -4.47453070       0.09359468      -0.11637549        0      -0.67383814       2.33140373      -1.87483466
C       -4.05466175       0.61176068      -1.47582543        0      -0.53108072      -0.27832317       3.35461855
C       -1.49644876       0.57169569      -2.21235037        0      -5.01181221      -0.48558468      -0.96618915
H       -2.93682575      -1.11523938      -2.09851551        0      -0.03388993      -0.65020227      -0.11246514
O       -3.44998264      -0.63177931       1.70508349        0       0.66976869       1.98119056      -2.39230490
H       -3.87626767       1.68107963      -1.29247153        0      -0.03341245      -0.15939617      -0.45464477
H       -4.94257879       0.44917867      -2.05512452        0       0.21401811      -0.30758172      -0.58900392
H       -1.58334780       1.45300567      -1.67489552        0       1.05772746       1.59175825       1.08063388
H       -0.69514275      -0.06060532      -2.13386655        0       1.94302821      -0.89462531       0.25182933
H       -1.74266374       0.85064769      -3.25860858        0       0.34734547      -0.50497532       0.40262210
C        3.14170218       0.07860968       1.90398347        1      -5.60032129      -1.10311949       2.77163267
O        4.31518841       0.20511667       1.47918546        1       4.84883118       0.64822119      -1.92200065
C        4.23197222       0.08495168       0.09893551        1       6.95779037      -0.36633810      -2.08736920
O        3.03761721      -0.08545133      -0.25864148        1      -3.31488633      -0.24496290      -1.00255179
C        2.26470423      -0.09372932       0.89008349        1      -0.91924989       0.25445145      -0.28395367
O        5.23632526       0.02389467      -0.65116549        1      -3.52511692       0.49999067       2.89020491
H        1.16768730      -0.07575033       0.74390954        1       1.19668818      -0.08647160       0.27904832
H        2.90786624      -0.14447433       2.95684457        1       0.35626468       0.39822870      -0.64501119
35
Properties=species:S:1:pos:R:3:molID:I:1:forces:R:3 Nmols=3 Comp=DMC(1):EMC(1):VC(1) energy=-1799.107666015625 pbc="F F F"
C        0.77743095      -4.03600359       0.27467319        0       1.74906349      -2.79585981       0.38288200
O        1.28903091      -5.16320753       0.95929217        0       0.22718048       0.44607282      -0.72749412
C        0.75651294      -5.16368055       2.18931627        0       1.02754200      -1.66156101       2.69478822
O       -0.16066407      -4.14499569       2.23753524        0       0.19538331      -1.01674032       0.75374866
C       -0.13006607      -3.53275061       1.02234018        0      -3.26076984       3.25225043       2.48552060
O        1.10245395      -5.90156651       3.12484407        0      -1.43059659       2.52070236      -3.17067146
H       -0.73748505      -2.59803772       1.09414721        0       0.68212354      -1.07108009      -0.56264323
H        1.16478693      -3.86064363      -0.65364784        0       0.78741699       0.27884212      -1.78997874
C        2.39473701      -0.13567971      -2.00385976        1      -3.28054881       1.48674035       0.88973200
O        2.02117705       0.93080831      -1.53105283        1       0.94073915      -1.68019581      -0.70141840
O        1.56575596      -1.17551470      -2.29425788        1      -0.43204561       0.60619211       0.35356680
O        3.56410599      -0.51147169      -2.36361885        1       0.48500672      -1.35245204      -0.80260962
C        0.08413994      -1.07812166      -2.07079673        1       2.56215763       1.53559315      -0.99367601
C        4.63801384       0.32011929      -2.19520688        1       1.02281618       2.85043550       0.55788898
H       -0.02724706      -1.10631275      -0.99866283        1      -0.54137206      -0.02127771      -0.00481397
H       -0.23066705      -0.09215672      -2.55662274        1      -0.03069185      -1.52108526       0.67369467
H       -0.13875505      -1.96449971      -2.61947680        1      -1.01200342      -0.22506598       0.00110939
H        5.52925682      -0.25668570      -2.45086575        1      -0.20347464       0.47134113      -0.01025061
H        4.53675508       1.33490324      -2.72569370        1       0.23905841      -1.53149068      -0.29759437
H        4.66562796       0.72269827      -1.16748881        1       0.27517715      -0.71260691       0.19485247
C       -2.15529704       3.67527223       0.67875421        2      -1.47302926      -0.92297518       0.02602708
O       -2.19263101       3.17264032       1.81260824        2       0.78646052       1.67622352      -3.89350438
O       -2.98643708       4.62139940       0.16492219        2      -0.37057889       0.62028408       2.28934240
O       -1.49599302       3.30005240      -0.51957279        2      -0.53260434      -1.09702802       2.62808561
C       -4.00357485       5.33675241       1.03247321        2       0.83959007       0.41755885      -1.50246727
C       -0.48296008       2.28641725      -0.33284181        2       0.06535089       1.67091131       0.46607864
C       -4.74070215       6.38486719       0.09098719        2      -1.13602638       0.81107795       2.04227543
H       -4.58521795       4.56906319       1.51632619        2      -0.86564410      -0.32952857      -0.68862700
H       -3.61696410       5.83598614       1.95198119        2       0.56649363       0.10364690      -1.15564275
H        0.13538894       2.76807332       0.40759417        2       1.10593224       0.00843412       0.19519407
H       -0.68323606       1.33709824       0.08318919        2      -1.34763169      -0.92007923       0.50991505
H       -5.36767626       7.06059551       0.80738819        2       0.36641896      -1.58572149      -0.94595540
H       -4.12336302       7.20362139      -0.28329381        2       0.71145344      -0.87233663      -0.33290470
H       -5.39347601       5.98927641      -0.74339181        2       0.99550688      -0.03504807       1.26023722
H       -0.01203106       2.06862926      -1.25954878        2       0.28614604       0.59582603      -0.82468826
18
Properties=species:S:1:pos:R:3:molID:I:1:forces:R:3 Nmols=1 Comp=DEC(1) energy=-760.401611328125 pbc="F F F"
C        0.21545677       0.27857527       0.78011549        0       2.99188709       1.49713063      -0.62437111
O        1.21367276       0.73387229       1.36984849        0      -3.42703128      -0.28777730      -0.63109660
O        0.36155477      -0.84742874       0.10499748        0       1.13855040      -1.36804891      -1.61320317
O       -0.96275026       0.95702928       0.50959450        0       2.70045805       2.30324912       4.33103848
C        1.44331980      -0.93667674      -0.97146153        0       0.53445613      -1.07766354      -0.09209636
C       -1.85403621       0.46545729      -0.32444653        0      -1.83637118      -2.47730803      -3.69433427
C        2.63966966      -1.96566975      -0.47162151        0      -2.48272800       1.91988611      -0.07608157
H        0.93263578      -1.43869877      -1.92214453        0       0.88316214       0.95288187       1.91362834
H        1.84146082       0.10294128      -1.22501552        0      -0.47733936      -1.29619992       0.51526445
C       -3.10192323       1.32403529      -0.93014354        0       3.06560469       0.78899115      -2.24138308
H       -1.13933623       0.15264128      -1.19133651        0      -2.19376969       0.17575073      -0.08326742
H       -2.34241629      -0.45918372       0.11588048        0       0.36064276       0.69239074      -0.44121006
H       -2.68730831       2.20029140      -1.67216051        0      -0.60654175      -1.88126147       1.73202431
H       -3.57766914       0.60869330      -1.68711853        0      -0.10121518       1.05955160       1.63987136
H       -3.60041618       1.88782930      -0.14118752        0      -0.33437306      -0.81396180      -0.23529303
H        3.46203876      -2.13866377      -1.12403250        0      -0.33420944      -0.35798013      -1.35089302
H        3.18801069      -1.56574667       0.34892547        0      -0.34445000       0.62999773       1.06082892
H        2.03143668      -2.80301762      -0.16429052        0       0.46326762      -0.45962870      -0.10942632
44
Properties=species:S:1:pos:R:3:molID:I:1:forces:R:3 Nmols=3 Comp=DEC(2):VC(1) energy=-2057.614990234375 pbc="F F F"
C        0.30511126       0.00994164      -3.06306362        0      -0.28336215       1.67713618      -1.05531311
O        0.63089526       0.82307667      -2.22752953        0      -0.25956380      -1.23598123      -0.87991714
O       -0.00509874      -1.26174140      -2.95426345        0       0.29481298      -0.11605954       1.97165644
O        0.08915926       0.25015363      -4.38722277        0      -0.06555700       1.76423693      -0.48276901
C        0.16192526      -1.78970039      -1.59430158        0       0.98575020       0.71968055      -0.35059822
C        0.30054528       1.59053469      -5.00813961        0       0.71039891       0.93275952      -0.45277020
C       -0.06891674      -3.25976038      -1.62754750        0      -1.32057095      -1.10135269       0.41184357
H        1.23337328      -1.58371139      -1.28653550        0      -0.83254957       0.11679655      -0.25003099
H       -0.52705675      -1.30971134      -0.86590254        0       0.22341937       0.07621783      -0.55349326
C       -0.71971077       2.73079062      -4.76370478        0      -0.13666463      -1.12985444       1.42013359