1
Lattice="20.0 0.0 0.0 0.0 20.0 0.0 0.0 0.0 20.0" Properties=species:S:1:pos:R:3:forces:R:3 config_type=IsolatedAtom energy=-10.7072114944458 pbc="F F F"
H        0.00000000       0.00000000       0.00000000      -0.00000000      -0.00000000      -0.00000000
1
Lattice="20.0 0.0 0.0 0.0 20.0 0.0 0.0 0.0 20.0" Properties=species:S:1:pos:R:3:forces:R:3 config_type=IsolatedAtom energy=-48.84744644165039 pbc="F F F"
C        0.00000000       0.00000000       0.00000000      -0.00000000      -0.00000000      -0.00000000
1
Lattice="20.0 0.0 0.0 0.0 20.0 0.0 0.0 0.0 20.0" Properties=species:S:1:pos:R:3:forces:R:3 config_type=IsolatedAtom energy=-102.57117462158203 pbc="F F F"
O        0.00000000       0.00000000       0.00000000      -0.00000000      -0.00000000      -0.00000000
24
Properties=species:S:1:pos:R:3:molID:I:1:forces:R:3 Nmols=3 Comp=VC(3) energy=-1601.4515380859375 pbc="F F F"
C        0.45285612       3.01426506      -2.32330513        0       3.37304521      -1.13918447      -0.31862491
C       -0.65326887       3.32036090      -1.70732403        0      -1.66320753       0.75144935      -0.10840797
O       -0.82637185       2.63587189      -0.55307001        0       1.09325624      -0.90056998      -0.22992206
C        0.26635113       1.80842292      -0.42423803        0       1.29912591       0.71254444      -0.54615021
O        0.50404215       1.07012391       0.47730500        0      -0.99196482       1.51744151      -2.07922602
O        1.20395112       2.09938192      -1.54059100        0      -3.37808657       0.54859912       0.94946474
H        0.99488211       3.42258286      -3.19497991        0      -0.49060488      -0.45016229       0.73980117
H       -1.42996383       3.95062685      -2.12583590        0      -0.01550198      -0.24985814       0.61087406
C        1.26803315       0.08491497       2.52308202        1       0.18548059      -1.16117907       2.17912507
C        0.71784115      -0.92897701       3.20788789        1      -4.90625000      -0.11150873       2.56730270
O        0.64552510      -2.02956414       2.40690088        1       0.90615797      -0.55797672       0.24346238
C        1.62233818      -1.82807600       1.46278298        1      -0.47609115      -2.01684308      -1.10877657
O        2.07954812      -2.65240097       0.69964898        1      -0.92306364       1.80347586       1.70479536
O        1.90033615      -0.53814703       1.52785194        1       2.85986185       1.02595258      -2.00918150
H        1.60973608       0.97362196       3.01618791        1       0.12134963       0.17834115      -0.62748975
H       -0.23638988      -0.89091206       3.98334789        1       2.94236970      -0.02617487      -2.02318668
C       -2.61711597      -1.50253499       0.01472599        2       0.07843357       2.34021163      -1.32883358
C       -1.65134692      -2.33284712      -0.23200200        2       2.47174764      -1.30151522      -0.73936856
O       -0.75461686      -1.64041007      -1.12287402        2       0.54924369      -2.52156925       1.03601193
C       -1.23930693      -0.42871904      -1.39447701        2       0.27885735      -0.29312506      -1.25924730
O       -0.76134789       0.30777997      -2.22421694        2      -0.93111074      -0.61339068       1.71261573
O       -2.37302589      -0.32890302      -0.69123900        2      -1.33672845       1.06638288       0.48604268
H       -3.27383399      -1.43262005       0.79540098        2      -1.59000289       0.26392370       1.34274459
H       -1.51131582      -3.31143308       0.29795000        2       0.54368401       1.13473558      -1.19382596
22
Properties=species:S:1:pos:R:3:molID:I:1:forces:R:3 Nmols=2 Comp=DMC(1):EC(1) energy=-1151.9951171875 pbc="F F F"
C        2.69088602       2.54591513      -2.12696218        0      -1.52969182       4.57112265       1.60064340
O        2.34068704       3.64524508      -1.67616713        0       0.53282392      -2.27677011      -0.78661501
O        1.94911408       1.49887204      -2.25967312        0       0.13201618      -1.33673334      -0.23713754
O        3.84929514       2.26471615      -2.58353305        0       2.34256887      -0.98196483      -0.59031367
C        0.58085805       1.60748911      -2.26327205        0      -1.80303717      -0.34811205      -1.09360886
C        4.93368006       3.14626217      -2.62285423        0       2.58613157      -0.86840063      -1.13944530
H        0.20010208       1.35155511      -1.32161117        0      -0.46147677      -0.41554388       1.70733523
H        0.13602108       2.57295012      -2.51098919        0       0.56720430       0.24278706      -0.29413795
H        0.19209708       0.83466810      -2.94893003        0       0.22264835       0.33731049      -0.06183875
H        5.82548094       2.54683304      -3.02168822        0      -1.00987506      -0.03356725       0.64274299
H        4.87149000       3.85138416      -3.42286325        0      -0.81516099       1.01300824      -0.28696412
H        5.33360624       3.57181811      -1.71259320        0      -0.76415145       0.09686318       0.53933954
C       -3.41220593      -1.40147686       1.27721584        1       3.74345136      -2.61117697       1.05299246
O       -2.92165089      -1.47329795       2.67879891        1      -1.33940315       1.24914765      -1.73314667
C       -2.61571789      -2.75121093       2.98010492        1       1.52682853       1.72250557       1.95966530
O       -3.01706386      -3.61698890       2.14714384        1      -0.64575207      -0.19025970      -3.52699518
C       -2.94653201      -2.85366082       0.89804888        1      -0.88391030      -1.03006291      -0.87212992
H       -4.42421579      -1.24309289       1.20551991        1      -2.18088412       0.52917123       0.18949798
H       -2.80409384      -0.83304894       0.58278483        1      -0.05379516       1.01184297       0.50232923
O       -1.86870396      -2.94726801       3.88132596        1       0.21032882      -0.54203898       1.19458055
H       -3.50762296      -3.30938387       0.07090886        1      -0.58035660      -0.24887633       0.58422083
H       -1.93009996      -2.85789800       0.47551787        1       0.20349288       0.10974760       0.64898562
25
Properties=species:S:1:pos:R:3:molID:I:1:forces:R:3 Nmols=2 Comp=DMC(1):PC(1) energy=-1237.1591796875 pbc="F F F"
C        2.67575073       2.86108518      -2.86082530        0      -0.91298711      -1.68313384       1.83468091
O        2.76785755       3.16294599      -1.37367737        0       2.86585760       3.57752037      -4.23756027
C        2.53783751       2.18929100      -0.59767431        0      -0.86310232       2.19461489       5.39329052
O        1.93164957       1.26053202      -1.20610726        0      -1.62103224      -3.83276892      -2.54329133
C        1.75701964       1.53768110      -2.68214726        0       1.68776381       0.85026544       1.99204826
C        1.82226360       3.92414308      -3.45830131        0      -0.41598594       0.22949314      -1.21547771
H        3.62236261       2.79383111      -3.48461127        0      -0.84417534      -0.39909878       1.50901055
O        2.62325168       2.39863515       0.62851471        0       0.18040991      -1.64998627      -2.97072458
H        0.69594961       1.78663802      -2.79194736        0       0.40604144      -0.42482045      -0.23115651
H        2.12722850       0.64140809      -3.18146920        0      -0.24196842       0.47454047      -0.07848173
H        0.94558364       4.07772589      -2.83702040        0       0.26538205       0.71102428       0.22003895
H        2.44793057       4.83902597      -3.65341330        0      -1.06495607      -0.98147857       0.18083221
H        1.39495564       3.45968413      -4.37784052        0       0.55875313       0.93382770       0.14679027
C       -2.77969742      -2.77740502       1.95494866        1       1.70629895       0.12159842      -1.89906538
O       -3.66863132      -2.42830992       2.60583663        1      -2.87953520       1.33290684       1.53769898
O       -2.29131937      -2.42984796       0.79584169        1      -0.92777526       3.01180911      -3.32278061
O       -1.89286339      -3.66918087       2.21758556        1       1.57732415      -2.76862717       1.72151589
C       -2.91089439      -1.28356600       0.07705668        1       1.94327557      -1.08632135      -0.77800983
C       -2.05939937      -4.26767588       3.43624568        1       0.98646265      -3.60326648       0.84761322
H       -3.72709346      -1.70948493      -0.53036433        1       0.43537849       0.62278074       0.20604771
H       -3.16581345      -0.57542592       0.80696666        1      -1.02036905       0.78573757       0.94485176
H       -2.09199142      -0.74095094      -0.52423334        1      -1.13838351      -1.26278424       0.41454393
H       -1.32394242      -5.09556913       3.62502956        1      -0.04083294       0.49100655      -0.91892207
H       -1.93663037      -3.67549205       4.25493479        1       0.77566445       2.78889894       2.14031935
H       -2.99357438      -4.73741913       3.66374469        1      -1.41750836      -0.43373951      -0.89381337
27
Properties=species:S:1:pos:R:3:molID:I:1:forces:R:3 Nmols=2 Comp=DMC(1):EMC(1) energy=-1265.29833984375 pbc="F F F"
C       -2.03106403       0.65746909       0.26760513        0       0.95298660      -0.23976895      -0.15357709
O       -1.07807493       0.48504212       1.01702011        0      -2.00304055       0.78614384      -2.00527883
O       -3.26775193       0.23020512       0.42069915        0      -0.52828479      -0.33169538      -0.40283537
O       -2.21094799       1.20861411      -0.95951784        0       2.58221388       0.03295609      -0.48728669
C       -3.54576588      -0.43989488       1.59327912        0      -0.51459152       0.86712873       2.01469779
C       -0.96694797       1.71850216      -1.62740982        0      -2.62188554      -1.02425694      -0.20471203
C       -5.02091789      -0.62569290       1.77413309        0      -2.41783810      -3.40426254      -1.07168531
H       -3.05448604      -1.41090190       1.60176313        0       0.34868598       0.06633466       0.34818628
H       -3.22410202       0.31734413       2.37260509        0       0.21628231      -1.25070715       0.07806611
H       -0.72410798       2.40959311      -0.88021588        0       1.36110926       1.49851990       0.18971300
H       -0.25252098       0.92709315      -1.77050185        0       0.10548031      -0.28548622       0.14748017
H       -5.35431385      -1.19761384       2.70942616        0       0.91470134       0.79759485      -1.00008368
H       -5.65353584       0.21069811       1.69021618        0      -0.09252548       1.52697921       0.23611669
H       -5.48677492      -1.27245092       0.88484311        0       1.23011708       0.81977880       1.45219874
H       -1.31561697       2.06881022      -2.61999083        0       0.28750581       0.11672947       0.88764989
C        2.86216998      -0.54789591      -0.30648586        1      -1.07605612       2.72146034       0.20248204
O        2.04342008       0.15615812       0.27660215        1       0.95636678      -2.38652754       0.63057590
O        3.26260614      -0.10306588      -1.49444783        1       0.67993546      -0.98657787      -0.55798852
O        3.59369302      -1.61061084      -0.04163986        1       0.23043692       0.40589070      -0.08936393
C        2.62956214       0.98352611      -2.09231687        1      -0.34441131       0.98699749      -0.12804818
C        3.55574894      -2.15067077       1.29780114        1      -1.53203082       0.73222369      -1.25048232
H        1.88944602       0.64559013      -2.80296278        1      -0.09125185      -0.27850702      -0.33168909
H        2.08495712       1.70345008      -1.42564690        1       0.98023254      -0.53927112      -0.35527337
H        3.46013594       1.43517017      -2.62836289        1      -0.29229942       0.54357886      -0.06101981
H        4.11010695      -3.05958986       1.20176017        1       0.94348818       0.05895302       0.65451545
H        3.79936910      -1.30624783       1.98418510        1      -0.00040390      -1.28199852      -0.14081365
H        2.50926495      -2.46688581       1.28762710        1      -0.27492338       0.04778960       1.39845586
40
Properties=species:S:1:pos:R:3:molID:I:1:forces:R:3 Nmols=4 Comp=EC(4) energy=-2248.49609375 pbc="F F F"
C       -0.45859733       3.28287387      -3.49498057        0      -0.88326687       2.12730527      -2.35384393
O        0.88948870       3.79171300      -3.25429845        0      -2.65737772      -0.61012006       0.87041712
C        1.77967572       2.90106797      -3.77192235        0       0.66357350       3.69531059      -0.26888901
O        1.17627263       1.93414199      -4.35922432        0      -0.10238707      -2.10196066      -0.68676186
C       -0.21532533       1.93098700      -4.04651356        0      -0.30581301      -3.11055994       0.18264043
H       -1.27154136       3.41099501      -2.76392436        0       1.01299405      -0.06915246       0.49130547
H       -0.92158234       3.83359003      -4.43693542        0       0.98871523      -0.12768340       1.43547463
O        2.90443778       3.31073308      -3.80425644        0       0.39033699      -1.54824233      -0.31906998
H       -0.37066332       1.10437799      -3.21093941        0      -0.11291434       1.08397090      -1.75034237
H       -0.76461333       1.62513399      -5.02565050        0       0.65186787       0.55497760       1.73602903
C       -3.80103922      -2.50376415       2.43770266        1      -1.00141037       0.78444678      -2.88236427
O       -3.38939834      -3.25377202       1.26028454        1       0.65937614      -0.78473198       0.63649654
C       -2.30445933      -3.99550915       1.61562252        1       3.02011371      -0.68041176      -2.66551971
O       -2.14457035      -4.05070019       2.94205546        1      -0.65370882       0.45543694      -0.44440866
C       -2.87330842      -2.91826797       3.46709847        1       1.40126574      -1.50759327       3.23070145
H       -3.50343823      -1.48718607       2.20085359        1      -0.76688182       0.66084623      -0.20523250
H       -4.90017223      -2.60740995       2.47806549        1       0.59055859      -0.00701847       0.39313322
O       -1.42242634      -4.39646721       0.83060056        1      -3.22499704       0.93971288       2.22562981
H       -2.05277324      -2.11510110       3.58914661        1      -1.32720160      -1.00547111       0.79008776
H       -3.41370034      -3.34911704       4.41145039        1       1.29111540       1.15792239      -1.08590961
C        2.30157065       3.02082801      -0.87318546        2       1.56936598       0.63741207       0.09445974
O        1.55322373       4.09202099      -0.41163146        2      -1.09807205       0.12221789      -0.94987535
C        0.22185968       3.76526093      -0.52127045        2      -1.51383543       3.05784249       2.69716406
O        0.00528267       2.46501303      -0.45626047        2       2.89050865      -0.25095367      -1.91125429
C        1.41516268       1.88063395      -0.86391044        2      -3.64480948      -3.18952894       0.15447076
H        2.83828473       3.31009007      -1.79112947        2      -0.38224775      -0.15972531       0.46023512
H        3.08249879       2.85036993      -0.17078246        2       0.92727983      -0.04792571       0.78567374
O       -0.57856935       4.68077612      -0.37167346        2       1.19835901      -2.28329921      -0.92285049
H        1.33951473       1.28182793      -1.79590452        2      -0.06515485       0.91466916       0.09518647
H        1.47189569       0.99151593      -0.16966246        2       0.46360090       1.44512415       0.11694247
C        0.88761669      -2.09321308       0.81132352        3      -3.54197359      -0.34703773      -1.48619270
O        0.03761967      -1.97608399       2.01637745        3      -0.33549285       2.55057907      -0.79146051
C        0.60278767      -2.53470492       3.05735755        3       0.37987578      -2.19306469       0.62147039
O        1.52326167      -3.40426898       2.49319744        3       0.12876534      -1.22010374       2.04558134
C        1.51099765      -3.45389700       1.07032657        3       0.31509066       3.07261586       1.92078471
H        0.08297767      -2.01841211      -0.05692146        3       1.32025385      -0.46568137       1.42910588
H        1.59659469      -1.32058406       0.56207752        3       0.32973540       0.31615061       0.71021760
O        0.34869966      -2.52002215       4.24030066        3       0.52421582       0.45494252      -2.53200865
H        1.02420068      -4.25862026       0.65650052        3      -0.98025250      -1.84219551      -0.63513601
H        2.53591371      -3.38821101       0.90628552        3       1.88082969      -0.47902265      -1.23208797
30
Properties=species:S:1:pos:R:3:molID:I:1:forces:R:3 Nmols=3 Comp=EC(3) energy=-1687.67041015625 pbc="F F F"
C       -4.12463999      -1.38331330      -2.42669320        0       0.04401278      -0.11651230       0.90834975
O       -4.85671186      -0.58527428      -3.29135799        0      -0.94607979       1.11635780      -0.68167806
C       -4.90107059      -1.11834621      -4.56758595        0      -1.03122616       0.63647074       0.97005802
O       -4.02001286      -2.08291125      -4.62866592        0       1.35034859      -0.78322911      -0.37781227
C       -3.24393392      -2.16244316      -3.42454815        0      -2.91413927      -0.99683529       1.07980227
H       -3.52626491      -0.84614927      -1.66835916        0      -0.01286721       0.38259947      -0.63852483
H       -4.85408068      -1.92120123      -1.77655911        0       0.34965503      -0.32124642      -0.64058280
O       -5.69529676      -0.78748024      -5.39322805        0       0.79114318      -0.14710736       0.45595336
H       -2.31512570      -1.72622728      -3.47138715        0       2.16962457       0.95730102      -0.66553915
H       -3.18651271      -3.17717123      -3.06380701        0       0.20183066      -0.72745520      -0.40366912
C        0.30978417      -0.65456825      -0.57457012        1       2.61295748      -0.97408956       0.83334029
O       -0.88102782      -1.13273120      -0.17320210        1      -2.75054383      -0.42552400       1.34212995
C       -1.14308679      -2.33998322      -0.65088713        1       1.31370187       0.52715135      -2.26652408
O       -0.15073483      -2.73469424      -1.49947405        1       1.83259082       0.68428636       0.92974520
C        0.98336518      -1.88646221      -1.22591114        1       0.73030305       0.81645465      -1.10574281
H        0.22791818       0.14389074      -1.23837507        1      -0.24649680       1.58850753      -1.00061059
H        0.85364717      -0.37587824       0.35009891        1       0.05891964       0.32714385      -0.42527157
O       -2.14108491      -2.93444228      -0.60166711        1      -2.04940271      -1.01245451       0.93668205
H        1.68404114      -1.63605428      -2.08693218        1      -1.45858765      -0.41776562       0.16314077
H        1.70171022      -2.23403931      -0.50286508        1      -0.04574406      -1.11405432       0.58675301
C        3.67231321       2.92746186       3.89800692        2      -0.43472952      -1.15167642       1.97384012
O        4.82196808       2.26200986       4.53771782        2      -2.73073649      -2.35529280      -0.66714180
C        5.47337103       3.08063078       5.26452112        2       3.30632138       2.05190039       0.92861187
O        5.27526140       4.36545181       4.83315992        2      -0.69197720      -0.70683432      -0.12442744
C        4.28790140       4.29067278       3.83464384        2      -0.97101426       2.29967904      -0.63236618
H        3.43658614       2.38041568       2.99494600        2       0.41423690       0.18830025      -0.37368077
H        2.68566012       2.82074285       4.53663397        2       1.85279965       0.35518438      -0.61352432
O        6.34440804       2.87332678       6.06447983        2      -1.08991647      -0.38322401      -0.26651096
H        4.68179321       4.43559790       2.83605695        2       0.63532770       0.08427042      -0.36058331
H        3.64824009       5.17260456       3.99479294        2      -0.29031104      -0.38230652       0.13578308
28
Properties=species:S:1:pos:R:3:molID:I:1:forces:R:3 Nmols=2 Comp=EMC(1):PC(1) energy=-1323.4510498046875 pbc="F F F"
C        1.72377765       3.32298040       1.23377502        0      -2.79422736      -2.45606160       1.26451385
O        2.63007474       3.96519041       1.53447902        0       3.92110538       1.85026574       1.07098699
O        1.29991972       2.14615750       1.84063101        0       0.11662042       1.08448577      -0.53836530
O        0.77926767       3.66562247       0.43865305        0      -2.27603841      -0.66743582      -1.57886374
C        1.90697467       1.75645757       3.04736710        0       0.44416353      -2.46125937      -0.50765038
C        0.88982570       4.74090958      -0.45231396        0       0.44481164       1.62121832       0.43738073
C        1.15173769       0.57867450       3.70658803        0      -1.21885228       0.05068767       0.99556416
H        2.79456258       1.18240547       2.76503110        0       0.87095451       0.43489692      -0.34488916
H        2.20889378       2.54168057       3.70765495        0      -0.29073119       0.83214599       0.38487241
H        0.10335267       4.74462366      -1.20242596        0      -0.40859812      -0.19492823       0.43079597
H        0.86104167       5.71037769       0.15870804        0       0.04590574      -1.04670715      -0.94845426
H        1.82548165       0.10581652       4.46028614        0      -0.52688253       0.31280988      -0.64571160
H        0.22868967       0.92526150       4.24658728        0       0.80571771      -0.23150668      -0.52153850
H        0.82980067      -0.20090248       2.97496009        0       0.37852323       0.71712106       0.41918910
H        1.80501771       4.65960073      -1.02614200        0       0.48752826       0.15426722       0.08217034
C       -1.31142235      -4.00997543      -1.90670896        1      -0.14321367      -2.24346137      -1.11288500
O       -1.36890638      -2.83475542      -2.73198986        1      -1.80466259      -1.43601036       4.30955124
C       -1.54313231      -1.91736245      -1.71109498        1       3.99890876      -0.25926256      -1.06211376
O       -1.16352928      -2.32432938      -0.44027796        1      -2.44545007      -2.02850652      -0.42296052
C       -1.41685629      -3.77515841      -0.40252295        1       0.68853128       1.43389392       0.33814883
C       -2.38931227      -5.01158953      -2.23772907        1      -0.23223412      -1.03882360      -1.26539719
H       -0.30356833      -4.38847160      -2.05719805        1       0.27602375      -0.38010120      -0.58839101
O       -1.39821637      -0.80781245      -2.05047894        1      -1.26381409       3.00179005       0.08260405
H       -2.34512043      -4.16522455       0.13714604        1       0.89930445       1.27463973      -0.74829519
H       -0.57648534      -4.34543562       0.01129304        1      -0.06061578       0.63929105       0.49488562
H       -3.37616634      -4.65697241      -2.00140500        1      -0.18397498       0.42984593       0.09857257
H       -2.36349630      -5.22382641      -3.30567098        1       0.00809351       0.05448151       0.01638567
H       -2.28031039      -5.97883224      -1.71653998        1       0.26310372       0.55222255      -0.14010555
46
Properties=species:S:1:pos:R:3:molID:I:1:forces:R:3 Nmols=3 Comp=DEC(2):EC(1) energy=-2084.005859375 pbc="F F F"
C        1.12228513       2.57065392       3.05553150        0      -1.37681961      -2.62126756      -1.91330528
O        0.89510715       3.33680701       3.90915251        0       0.14814103       1.95497084       1.72170591
O        0.83131516       1.22789502       3.08354163        0       1.07309771       2.70634365       4.17251730
O        1.47916710       2.80396104       1.84003460        0       0.75555563      -0.12406203      -1.77295280
C        0.86742717       0.93730795       4.75010538        0      -0.70779568      -1.20917881      -3.67866397
C        1.98150611       4.01263905       1.23323762        0       0.20477477       0.33049297       3.00174761
C        0.80585617      -0.58874100       4.48594856        0       0.42501515       0.63636911       1.70433044
H        1.87435615       1.08331895       5.15053034        0      -0.53064179       0.80472630       0.04958224
H       -0.02357686       1.61593997       5.10627460        0       1.59229290      -1.78970730      -0.15398768
C        0.86050314       4.98110104       1.04421353        0       0.54091972       1.33495831       0.41650456
H        2.59138203       4.60207987       2.06282258        0      -0.05077779      -1.45725882      -1.67979288
H        2.49448419       3.56533098       0.39430356        0       0.18989022       0.82895410      -0.13208783
H        1.30257308       5.96039391       0.89348656        0       0.33034635       0.24581301       0.37402806
H        0.26657715       4.89897490       0.20957758        0      -1.29915452      -1.04849291      -2.03896022
H        0.17814614       5.04733515       1.87895453        0       0.03919524      -0.22116007       0.45734680
H        1.16012108      -1.13257897       5.37814569        0      -0.77471614       0.26010817      -0.14491117
H       -0.23201686      -0.73150504       4.21799374        0       0.26576471      -0.72942615      -0.19824114
H        1.59177709      -0.83813405       3.75746059        0      -0.82508814       0.09781772      -0.18485892
C       -3.41360188      -0.98489702      -1.42369044        1       0.00639665      -2.69487906       0.96219164
O       -4.55164003      -0.98675704      -1.68807948        1      -3.00856781      -0.66022503      -2.49914026
O       -2.50612378      -1.95843303      -1.43353546        1      -0.62832260      -1.00328064      -1.06125951
O       -2.91195083      -0.18129502      -0.62358844        1       3.32022333       3.44534540       2.74222326
C       -2.94922781      -3.16452909      -2.04602051        1      -1.32970548       0.79116195      -1.42153668
C       -3.65715981       0.89645898      -0.14776742        1       1.67777121      -0.46553791       3.65936375
C       -1.73851287      -4.02535009      -1.99297738        1       0.10745567      -2.62076712      -0.26514634
H       -3.87312388      -3.66752005      -1.60215044        1       1.10769773       0.65685970       0.07093567
H       -3.32941294      -2.82905102      -3.10723448        1       0.81216586      -0.77119410       1.20172167
C       -2.66523385       1.63324594       0.88361657        1      -2.77763653       0.60833430      -0.05374426
H       -3.91746187       1.44909501      -0.97636640        1      -0.85820794       1.64038181      -1.40465546
H       -4.52412081       0.52065700       0.48019758        1       0.59444082       0.49194169      -0.77372265
H       -3.43014789       2.24482489       1.47997653        1       1.46078336      -0.70656717      -0.49056423
H       -2.09312892       0.97019100       1.50268054        1      -0.40117496      -0.72461516       0.30248016
H       -1.89375591       2.26521993       0.49221757        1      -0.17517388       0.46320504      -0.85282159
H       -2.09110880      -5.09659481      -2.20086837        1       0.74760616       1.39075911      -0.31904539
H       -0.93603188      -3.68115592      -2.69023538        1      -0.95351762      -0.53249818       0.67804730
H       -1.35541391      -4.14123487      -0.96314341        1      -0.04111642       0.57829523      -0.47201025
C        2.30126524      -3.24978709      -3.27970552        2      -0.55005407       3.60687327       1.68239832
O        3.00183821      -1.84303808      -3.55832553        2      -0.29483598      -3.30645061      -0.60819340
C        2.96121526      -1.04488206      -2.52093434        2      -2.77294779      -2.17580223       0.22126439
O        2.09142613      -1.54451299      -1.57714641        2       0.57152522      -1.20284379       0.16559243
C        1.89760613      -2.98708797      -1.72157145        2       2.28319407       0.34240520      -0.59424376
H        1.30514014      -3.13057709      -3.81170249        2       1.58503926      -0.71688771      -0.09156299
H        3.03420115      -4.06249380      -3.52643442        2      -1.10074806       0.94767070       0.30089161
O        3.41751218       0.01574698      -2.43227243        2       1.46260333       2.28570533       0.25727844
H        0.90290713      -3.12530494      -1.34257340        2      -0.10079139      -0.27403840      -0.49518490
H        2.63837409      -3.52872992      -1.04472041        2      -0.74410379       0.60664940      -0.84155691
31
Properties=species:S:1:pos:R:3:molID:I:1:forces:R:3 Nmols=2 Comp=DEC(1):PC(1) energy=-1410.7537841796875 pbc="F F F"
C       -2.17536664      -0.12906668      -1.11784172        0       0.38809812       0.66865975      -0.99771923
O       -1.34424663      -0.81957370      -0.64080775        0       0.96335483      -1.10722756       0.90990090
O       -3.24678564       0.35303932      -0.51759273        0      -0.34521294       0.10340703       0.56528687
O       -2.10225153       0.32426533      -2.37789369        0      -2.03732085       1.06437397       0.61359829
C       -3.46582150       0.10677933       0.88375926        0      -0.47957239      -0.54635829       0.28559387