77
Properties=species:S:1:pos:R:3:molID:I:1:forces:R:3 Nmols=6 Comp=DEC(1):DMC(2):EC(2):EMC(1) energy=-3736.110107421875 pbc="F F F"
C       -1.83385191       1.12909904      -5.27613973        0       1.14044523       0.81804395       5.30039024
O       -1.84544096       1.46962502      -4.08675813        0      -1.12479758      -0.15358651      -1.10682392
O       -0.81386599       1.47580007      -5.98193979        0       1.86500669       0.27001053      -2.92622328
O       -2.59086690       0.21176207      -5.77056789        0      -0.23971397      -0.16971511      -1.70433187
C        0.20941499       2.36939910      -5.45872688        0      -2.81457472       2.46518612      -1.09869647
C       -3.81860003      -0.19891795      -5.26081276        0      -2.93897629       2.44509006      -3.35027766
H        0.80830398       2.90585497      -6.22674083        0      -0.77247357      -0.58668578      -0.16687036
H       -0.43291500       3.20440104      -4.97875213        0       1.37409031      -1.17513657      -0.02149725
H        0.91850897       1.85523894      -4.91552973        0       0.87765217      -1.04964447       1.60823822
H       -4.38113103      -0.59572596      -6.14403677        0       0.56502450       0.22803092       0.08648473
H       -3.74950680      -0.95236996      -4.64341974        0       1.07665896      -3.93012810       3.43331480
H       -4.57596097       0.47631904      -4.82629776        0       1.03444016       0.74021792      -0.07500026
C        0.93029276      -1.72367896       4.76980173        1      -1.60215962       2.81024742      -0.15741596
O        1.70018986      -2.79686798       5.02000247        1       1.18636453      -1.14060521       0.47768593
C        2.70069674      -2.49618496       5.82866775        1       1.31441307      -0.29575896       2.46764660
O        2.56099371      -1.10588099       6.34901153        1      -0.99870670      -2.29267168      -1.67352653
C        1.28101782      -0.60152198       5.83027040        1       0.15849996      -0.98311228       0.37950808
H        1.20347885      -1.30759300       3.78276264        1      -0.60595149      -0.40538234       0.11616695
H       -0.15098518      -1.93216814       4.81819736        1       0.33858550      -0.31432518      -0.21854959
O        3.49970678      -3.34180202       6.20364343        1      -1.71579695       2.86248755      -0.88700736
H        1.38214985       0.33114596       5.23239957        1       0.09498960      -0.24206948       1.06407011
H        0.49058083      -0.50950404       6.69036447        1       1.51053500      -0.11516534      -1.41690576
C       -4.60754379       2.63073434      -1.18642231        2      -0.91210222      -1.10961652       1.21490526
O       -3.86599859       3.56218614      -0.95730635        2      -1.67195630      -2.28834963      -0.48014146
O       -5.11451897       1.62768712      -0.18845236        2      -0.30372095       2.31895995      -4.06995964
O       -5.24712166       2.21790232      -2.31521937        2       1.55660701       0.76524806       0.43818796
C       -4.60003265       1.74823417       1.06525466        2      -0.60087574       0.75547349       0.91290414
C       -5.03925499       2.96900930      -3.51630327        2      -0.99529719       1.26378965      -0.59933048
H       -4.77795299       0.83546521       1.58654371        2      -0.28611329      -0.54143822       0.51004422
H       -3.59713587       1.89867629       0.88943664        2       3.02337551       0.35484198       0.46041059
H       -4.96085295       2.62628331       1.62135462        2      -0.33281463      -0.26084542      -0.01238468
H       -5.65068277       2.53123226      -4.35545226        2       0.15098244       0.41211259       1.28549457
H       -5.26330265       4.03460016      -3.28051325        2      -0.85126311      -0.45544618      -0.00957733
H       -4.08317455       3.16231622      -3.97079154        2       1.18033791      -1.11634827       0.37079382
C        3.70112078       3.70429236       0.08967109        3       5.70671320       0.34077173      -1.49314404
O        5.03244584       3.73635251      -0.11905291        3      -6.59249592      -1.21569848       1.29867125
O        2.81571381       2.67851359       0.19525609        3       2.05966377       0.79744548      -0.61550486
O        3.08117788       4.85766751       0.07332309        3      -1.35291862      -0.39221716       1.12576723
C        3.26174681       1.36178142      -0.17558291        3       1.16007793      -0.81979859       0.60013127
C        3.68094962       6.17464835       0.18470508        3       1.82934642      -2.99455476       2.23382378
C        2.17372887       0.36188954       0.14077209        3      -1.02854705      -2.30979180       0.66147202
H        3.70850890       1.24178654      -1.19944086        3      -0.95121026       0.81820107       0.30508173
H        4.13883154       1.14406353       0.45944009        3      -1.92268991       2.88905311      -3.65555382
H        4.36655466       6.29060132       1.11052105        3      -1.11926699      -0.29520792      -1.54877996
H        4.13625376       6.21272236      -0.72750893        3       2.10858917       0.99858415      -2.10075879
H        2.44238679      -0.67672247      -0.00996991        3       0.89236510      -0.23077059      -0.88200653
H        2.12067168       0.27920658       1.24076614        3      -1.46801996       1.34165692      -0.66415870
H        1.15490680       0.20842052      -0.37262192        3       1.32082391       1.81551051       0.58421683
H        2.87197583       6.77449852       0.18342509        3      -2.39659500       2.09956264       0.53014523
C        5.10740771      -0.50345900       1.02780885        4       0.16572332       0.74571180      -4.04499817
O        4.35471501       0.31792398       1.84430677        4      -0.43895918       1.36227989       2.76673269
C        3.66636004      -0.37496701       2.74321681        4       0.20189273      -0.79919171       2.53541017
O        4.15639367      -1.62193796       2.71895176        4       1.69622302      -1.20063949      -0.43669289
C        5.33145490      -1.71580001       1.74970180        4       0.83707821       0.19249654       3.28469706
H        4.34884992      -0.76027503       0.20811480        4       1.37598395       0.20190233       0.15489531
H        5.97438874       0.04610899       0.46399480        4      -1.32563257      -0.89792883       1.34678566
O        2.83755984       0.03950299       3.53108698        4       1.75067687      -0.50066614      -1.88262725
H        5.30468001      -2.59577712       1.21560675        4      -0.91384339      -1.95369244      -1.04740596
H        6.40798774      -1.73028704       2.11489779        4      -1.27202106       0.12565738       0.79276127
C       -2.68539130      -3.23184506      -1.38702589        5       0.30829144      -5.11378384       0.55962312
O       -2.17742836      -2.62260405      -2.23395889        5       0.14001393       1.69555664      -2.96999216
O       -2.49298536      -3.04796116      -0.13055485        5      -1.05389082       0.45785820       1.97028780
O       -3.14275038      -4.62926118      -1.48948389        5      -1.35107136       3.13918424       2.03851461
C       -2.24853050      -1.72193925       0.28131015        5      -0.31856528       1.66280270       2.69348264
C       -3.28168141      -5.30291716      -2.69633477        5       3.11299753       1.93353069      -2.04383111
C       -2.26212441      -1.61312525       1.89669413        5      -1.28445911       0.19512224       1.09304059
H       -1.23248433      -1.42077510      -0.08426886        5      -0.84392184      -0.00323787       0.26476350
H       -3.07519137      -1.00592212      -0.00700385        5       0.80884761      -0.79209143      -0.35112238
C       -3.71914732      -6.73270623      -2.45487183        5      -6.69975567       1.86064100      -2.08503342
H       -3.72624027      -4.69143121      -3.60921686        5      -0.33627710      -1.38490176       1.92039847
H       -2.20245134      -5.10441129      -2.97845786        5      -0.32895809      -1.88854694      -0.93540847
H       -4.31953823      -7.13499419      -3.40754193        5       2.08761239       0.40056551       1.28838146
H       -3.22057950      -7.50558822      -1.96553295        5       1.11466384      -0.24295199       0.52564389
H       -4.82099544      -6.49050919      -1.89762276        5       2.73381901      -0.82089937      -0.28199190
H       -2.01573240      -0.65080420       2.42909104        5      -0.09286729      -0.34063041      -1.62328887
H       -3.19746839      -1.92080514       2.54010922        5       0.96901327       0.23146892      -2.09297323
H       -1.52192747      -2.27279417       2.24705607        5       1.03083587      -0.99206775       0.02881831
77
Properties=species:S:1:pos:R:3:molID:I:1:forces:R:3 Nmols=6 Comp=DEC(1):DMC(2):EC(2):EMC(1) energy=-3736.7724609375 pbc="F F F"
C       -1.89711549       1.16727947      -5.46392165        0       1.14006698       0.81809980       5.30174780
O       -1.90870454       1.50780545      -4.27454005        0      -1.12473953      -0.15394509      -1.10848045
O       -0.87712957       1.51398050      -6.16972171        0       1.86503518       0.27005106      -2.92613220
O       -2.65413048       0.24994250      -5.95834981        0      -0.24027789      -0.17094296      -1.70369542
C        0.14615141       2.40757953      -5.64650880        0      -2.81462526       2.46515417      -1.09868968
C       -3.88186361      -0.16073752      -5.44859468        0      -2.94780993       2.45237350      -3.34608841
H        0.74504040       2.94403540      -6.41452275        0      -0.77247411      -0.58668631      -0.16687107
H       -0.49617858       3.24258147      -5.16653405        0       1.37408292      -1.17515469      -0.02149302
H        0.85524539       1.89341937      -5.10331165        0       0.87765139      -1.04964745       1.60823822
H       -4.44439461      -0.55754553      -6.33181869        0       0.56653631       0.22653243       0.08683628
H       -3.81277038      -0.91418953      -4.83120166        0       1.07945824      -3.93488860       3.43325424
H       -4.63922455       0.51449947      -5.01407968        0       1.05198479       0.73859572      -0.08716851
C        1.00515537      -1.79498071       4.97058436        1      -1.63205683       2.76628327      -0.15252793
O        1.77505247      -2.86816973       5.22078510        1       1.19089270      -1.16944695       0.49515867
C        2.77555935      -2.56748671       6.02945038        1       1.31545079      -0.29578543       2.46857262
O        2.63585632      -1.17718274       6.54979416        1      -0.98666310      -2.29808879      -1.66686535
C        1.35588043      -0.67282373       6.03105303        1       0.14047992      -0.95658332       0.42143887
H        1.27834146      -1.37889475       3.98354527        1      -0.58678335      -0.38980687       0.05445302
H       -0.07612257      -2.00346989       5.01897999        1       0.32392401      -0.32183778      -0.20381956
O        3.57456939      -3.41310377       6.40442606        1      -1.71582413       2.86252666      -0.88691556
H        1.45701246       0.25984421       5.43318220        1       0.19185567      -0.25219369       0.96003556
H        0.56544344      -0.58080579       6.89114710        1       1.50442314      -0.11818671      -1.40878153
C       -4.77557771       2.71802684      -1.22835401        2      -0.91167307      -1.10910559       1.21500874
O       -4.03403251       3.64947864      -0.99923805        2      -1.67193007      -2.28831100      -0.48013699
O       -5.28255289       1.71497962      -0.23038406        2      -0.30372298       2.31890583      -4.06981993
O       -5.41515558       2.30519482      -2.35715107        2       1.55601442       0.76456761       0.43853319
C       -4.76806657       1.83552667       1.02332296        2      -0.60089505       0.75546801       0.91289032
C       -5.20728891       3.05630180      -3.55823497        2      -0.99254590       1.26314187      -0.59970182
H       -4.94598691       0.92275771       1.54461201        2      -0.28605458      -0.54149520       0.50998282
H       -3.76516979       1.98596879       0.84750494        2       3.02339077       0.35484332       0.46040654
H       -5.12888687       2.71357581       1.57942292        2      -0.33281672      -0.26084346      -0.01238507
H       -5.81871669       2.61852476      -4.39738396        2       0.13801241       0.41747048       1.29008102
H       -5.43133657       4.12189266      -3.32244495        2      -0.84868807      -0.45035118      -0.00602886
H       -4.25120847       3.24960872      -4.01272324        2       1.17602003      -1.12383139       0.36971274
C        3.82155395       3.82044001       0.09169893        3       5.71260309       0.33036464      -1.49518561
O        5.15287901       3.85250016      -0.11702507        3      -6.59415531      -1.21845615       1.29907191
O        2.93614698       2.79466124       0.19728393        3       1.98310935       0.83625597      -0.65392983
O        3.20161105       4.97381516       0.07535093        3      -1.35202336      -0.39117128       1.12565279
C        3.38217998       1.47792907      -0.17355507        3       0.84745330      -0.73729026       0.36429015
C        3.80138279       6.29079600       0.18673292        3       1.82944250      -2.99467063       2.23381996
C        2.29416204       0.47803719       0.14279993        3      -1.04148400      -2.30523014       0.68542778
H        3.82894207       1.35793419      -1.19741302        3      -0.93856812       0.72241515       0.38273740
H        4.25926471       1.26021118       0.46146793        3      -1.29849887       2.18544292      -2.22031307
H        4.48698783       6.40674897       1.11254889        3      -1.11927426      -0.29521048      -1.54878581
H        4.25668693       6.32887001      -0.72548109        3       2.10857248       0.99859512      -2.10074520
H        2.56281996      -0.56057482      -0.00794207        3       0.90603471      -0.22463453      -0.88578999
H        2.24110485       0.39535423       1.24279398        3      -0.96801102       1.19280291      -0.34165633
H        1.27533997       0.32456817      -0.37059408        3       1.32132173       1.80051613       0.58322936
H        2.99240900       6.89064617       0.18545293        3      -2.39658880       2.09950686       0.53014255
C        5.25752347      -0.52617391       1.10819517        4      -0.03071171       1.05286455      -4.05191994
O        4.50483077       0.29520907       1.92469309        4      -0.68282032       1.72526634       1.82159853
C        3.81647580      -0.39768192       2.82360313        4      -0.04883373      -0.38893664       2.02572584
O        4.30650943      -1.64465287       2.79933808        4       1.61143136      -1.30185318      -0.35148716
C        5.48157066      -1.73851492       1.83008812        4       0.88884360       0.07147646       3.32572818
H        4.49896568      -0.78298994       0.28850112        4       1.22461605       0.19080833      -0.00229013
H        6.12450450       0.02339408       0.54438112        4      -1.27390432      -0.85614061       1.33321857
O        2.98767560       0.01678808       3.61147330        4       1.73730397      -0.48134196      -1.88377023
H        5.45479577      -2.61849203       1.29599307        4      -0.90956223      -1.97252393      -1.04895771
H        6.55810350      -1.75300195       2.19528411        4      -1.26199651       0.13426557       0.79343802
C       -2.78287020      -3.35980008      -1.42325358        5       0.30829537      -5.11378002       0.55962437
O       -2.27490726      -2.75055907      -2.27018658        5       0.14001060       1.69555449      -2.96998882
O       -2.59046426      -3.17591618      -0.16678254        5      -1.05387926       0.45786142       1.97028100
O       -3.24022928      -4.75721620      -1.52571158        5      -1.35107172       3.13918304       2.03851366
C       -2.34600940      -1.84989427       0.24508246        5      -0.31859106       1.66279876       2.69346929
C       -3.37916031      -5.43087218      -2.73256246        5       3.11299706       1.93353164      -2.04383135
C       -2.35960331      -1.74108027       1.86046644        5      -1.28446519       0.19512415       1.09305859
H       -1.32996323      -1.54873012      -0.12049655        5      -0.84071696      -0.00105608       0.26435864
H       -3.17267027      -1.13387714      -0.04323154        5       0.80878985      -0.79202700      -0.35106605
C       -3.81662622      -6.86066125      -2.49109952        5      -6.69975710       1.86064482      -2.08503389
H       -3.82371917      -4.81938623      -3.64544455        5      -0.33627605      -1.38490200       1.92039907
H       -2.29993024      -5.23236631      -3.01468555        5      -0.32896018      -1.88854837      -0.93540955
H       -4.41701713      -7.26294921      -3.44376962        5       2.08761334       0.40056777       1.28838086
H       -3.31805840      -7.63354324      -2.00176064        5       1.11466622      -0.24295595       0.52564645
H       -4.91847434      -6.61846421      -1.93385045        5       2.73381805      -0.82090104      -0.28199154
H       -2.11321130      -0.77875922       2.39286335        5      -0.09286714      -0.34062147      -1.62328565
H       -3.29494729      -2.04876016       2.50388153        5       0.96900755       0.23146722      -2.09297085
H       -1.61940637      -2.40074919       2.21082838        5       1.03138733      -0.99194187       0.02984577
77
Properties=species:S:1:pos:R:3:molID:I:1:forces:R:3 Nmols=6 Comp=DEC(1):DMC(2):EC(2):EMC(1) energy=-3737.143798828125 pbc="F F F"
C       -1.96262001       1.20681233      -5.65835523        0       1.13986492       0.81781214       5.30158949
O       -1.97420906       1.54733831      -4.46897363        0      -1.12492502      -0.15382040      -1.10849857
O       -0.94263409       1.55351336      -6.36415529        0       1.86506021       0.27007920      -2.92612886
O       -2.71963500       0.28947536      -6.15278339        0      -0.24087736      -0.17130274      -1.70316911
C        0.08064689       2.44711239      -5.84094238        0      -2.81462979       2.46514988      -1.09868777
C       -3.94736813      -0.12120466      -5.64302826        0      -2.95095849       2.45411968      -3.34427047
H        0.67953588       2.98356826      -6.60895633        0      -0.77247441      -0.58668667      -0.16687131
H       -0.56168310       3.28211433      -5.36096763        0       1.37408245      -1.17515397      -0.02149233
H        0.78974087       1.93295223      -5.29774523        0       0.87765092      -1.04964709       1.60823774
H       -4.50989913      -0.51801267      -6.52625227        0       0.56700253       0.22604746       0.08666462
H       -3.87827490      -0.87465667      -5.02563524        0       1.07993186      -3.93542004       3.43310046
H       -4.70472907       0.55403233      -5.20851326        0       1.04733360       0.75979137      -0.08841437
C        1.08266978      -1.86880812       5.17847916        1      -1.63520002       2.76196885      -0.18134305
O        1.85256688      -2.94199714       5.42867990        1       1.19267023      -1.17912221       0.49622989
C        2.85307376      -2.64131412       6.23734518        1       1.31626546      -0.29485536       2.46984649
O        2.71337073      -1.25101015       6.75768896        1      -0.97854912      -2.30234814      -1.66232240
C        1.43339484      -0.74665114       6.23894783        1       0.14019608      -0.93259710       0.43341190
H        1.35585587      -1.45272216       4.19144007        1      -0.45175245      -0.29671827       0.01904070
H        0.00139184      -2.07729730       5.22687479        1       0.31609190      -0.32828701      -0.19785845
O        3.65208380      -3.48693118       6.61232086        1      -1.71584058       2.86254883      -0.88686931
H        1.53452687       0.18601680       5.64107700        1       0.23084876      -0.24856913       0.92400587
H        0.64295785      -0.65463320       7.09904190        1       1.49988532      -0.11969189      -1.40332532
C       -4.94956378       2.80841144      -1.27177102        2      -0.91155040      -1.10888064       1.21483338
O       -4.20801858       3.73986324      -1.04265506        2      -1.67191482      -2.28829408      -0.48012519
O       -5.45653896       1.80536422      -0.27380107        2      -0.30372345       2.31886768      -4.06971979
O       -5.58914165       2.39557942      -2.40056808        2       1.55581260       0.76417387       0.43946442
C       -4.94205264       1.92591127       0.97990595        2      -0.60087550       0.75547159       0.91287673
C       -5.38127498       3.14668640      -3.60165198        2      -0.98993880       1.26440847      -0.59879839
H       -5.11997298       1.01314231       1.50119500        2      -0.28605592      -0.54150039       0.50998425
H       -3.93915586       2.07635339       0.80408793        2       3.02337074       0.35484034       0.46040896
H       -5.30287294       2.80396041       1.53600591        2      -0.33281744      -0.26083857      -0.01238158
H       -5.99270276       2.70890936      -4.44080097        2       0.14266819       0.39251053       1.28472328
H       -5.60532264       4.21227726      -3.36586196        2      -0.84769696      -0.44717872      -0.00365984
H       -4.42519454       3.33999332      -4.05614025        2       1.17566049      -1.12454915       0.37033400
C        3.94625314       3.94070187       0.09379861        3       5.71269512       0.32100284      -1.49737728
O        5.27757820       3.97276202      -0.11492539        3      -6.59426451      -1.21865797       1.29891407
O        3.06084617       2.91492310       0.19938361        3       1.90349793       0.91736567      -0.69230366
O        3.32631024       5.09407702       0.07745061        3      -1.35186219      -0.38887173       1.12551343
C        3.50687917       1.59819093      -0.17145539        3       0.58449078      -0.50422865       0.00326830
C        3.92608198       6.41105786       0.18883260        3       1.82949257      -2.99464417       2.23382115
C        2.41886123       0.59829905       0.14489961        3      -1.13184035      -2.29516196       0.70319110
H        3.95364126       1.47819605      -1.19531334        3      -0.94885176       0.63284278       0.39831120
H        4.38396390       1.38047304       0.46356761        3      -0.62908173       0.99349976      -0.57067531
H        4.61168702       6.52701083       1.11464857        3      -1.11927056      -0.29520792      -1.54878080
H        4.38138612       6.44913187      -0.72338141        3       2.10857344       0.99860758      -2.10074878
H        2.68751915      -0.44031296      -0.00584239        3       0.89906198      -0.23052168      -0.88643563
H        2.36580404       0.51561609       1.24489366        3      -0.69676924       1.08562994      -0.21241319
H        1.40003916       0.44483003      -0.36849440        3       1.31341457       1.79487467       0.58153427
H        3.11710819       7.01090803       0.18755261        3      -2.39658785       2.09949684       0.53014231
C        5.41295666      -0.54969343       1.19142895        4      -0.30762482       1.58049703      -4.23444700
O        4.66026396       0.27168955       2.00792687        4      -0.72570252       2.36258793       0.83180970
C        3.97190899      -0.42120144       2.90683691        4      -0.27137148      -0.18076080       1.84056270
O        4.46194262      -1.66817239       2.88257186        4       1.55246389      -1.37753701      -0.28439152
C        5.63700385      -1.76203444       1.91332190        4       0.89455557       0.04676998       3.31577802
H        4.65439887      -0.80650946       0.37173490        4       1.21345592       0.05758725      -0.06333911
H        6.27993769      -0.00012544       0.62761490        4      -1.23301601      -0.85742444       1.34863079
O        3.14310879      -0.00673144       3.69470708        4       1.64013267      -0.62154233      -1.87792850
H        5.61022896      -2.64201155       1.37922685        4      -0.90636599      -1.98463035      -1.04811811
H        6.71353669      -1.77652147       2.27851789        4      -1.25384188       0.13609827       0.79466516
C       -2.88380203      -3.49228756      -1.46076453        5       0.30828881      -5.11378908       0.55962867
O       -2.37583909      -2.88304655      -2.30769753        5       0.14001799       1.69556499      -2.96999717
O       -2.69139609      -3.30840366      -0.20429349        5      -1.05388188       0.45785654       1.97027838
O       -3.34116111      -4.88970368      -1.56322253        5      -1.35107064       3.13919115       2.03852606
C       -2.44694123      -1.98238175       0.20757151        5      -0.31859213       1.66280103       2.69347167
C       -3.48009214      -5.56335966      -2.77007341        5       3.11299467       1.93352866      -2.04383540
C       -2.46053514      -1.87356775       1.82295549        5      -1.28446817       0.19511968       1.09305954
H       -1.43089506      -1.68121760      -0.15800750        5      -0.84071529      -0.00105545       0.26436070
H       -3.27360210      -1.26636462      -0.08074249        5       0.80878997      -0.79202724      -0.35106218
C       -3.91755805      -6.99314873      -2.52861047        5      -6.69976139       1.86064267      -2.08503628
H       -3.92465100      -4.95187371      -3.68295550        5      -0.33627632      -1.38490188       1.92039800
H       -2.40086207      -5.36485379      -3.05219650        5      -0.32895666      -1.88854778      -0.93541074
H       -4.51794896      -7.39543669      -3.48128057        5       2.08761525       0.40056625       1.28838277
H       -3.41899023      -7.76603072      -2.03927159        5       1.11466491      -0.24295557       0.52564573
H       -5.01940617      -6.75095169      -1.97136140        5       2.73382068      -0.82090020      -0.28199083
H       -2.21414313      -0.91124670       2.35535240        5      -0.09286690      -0.34061956      -1.62328863
H       -3.39587912      -2.18124764       2.46637058        5       0.96900737       0.23146927      -2.09297371
H       -1.72033820      -2.53323667       2.17331743        5       1.03138947      -0.99194223       0.02984363
77
Properties=species:S:1:pos:R:3:molID:I:1:forces:R:3 Nmols=6 Comp=DEC(1):DMC(2):EC(2):EMC(1) energy=-3737.306640625 pbc="F F F"
C       -2.03044485       1.24774554      -5.85967609        0       1.13978350       0.81774384       5.30157185
O       -2.04203390       1.58827152      -4.67029449        0      -1.12491667      -0.15381312      -1.10849762
O       -1.01045893       1.59444657      -6.56547615        0       1.86507785       0.27010071      -2.92612219
O       -2.78745984       0.33040857      -6.35410425        0      -0.24061757      -0.17131531      -1.70329571
C        0.01282205       2.48804560      -6.04226324        0      -2.81463289       2.46514463      -1.09868753
C       -4.01519297      -0.08027145      -5.84434912        0      -2.95000911       2.45263386      -3.34435034
H        0.61171104       3.02450147      -6.81027719        0      -0.77247429      -0.58668727      -0.16687000
H       -0.62950794       3.32304754      -5.56228849        0       1.37408328      -1.17515540      -0.02149302
H        0.72191603       1.97388544      -5.49906609        0       0.87764871      -1.04964447       1.60823560
H       -4.57772397      -0.47707946      -6.72757313        0       0.56687284       0.22609395       0.08656794
H       -3.94609974      -0.83372346      -5.22695610        0       1.07972372      -3.93486309       3.43294001
H       -4.77255391       0.59496554      -5.40983412        0       1.01856244       0.80966777      -0.07257980
C        1.16292992      -1.94525067       5.39373806        1      -1.63567781       2.76729274      -0.20380044
O        1.93282702      -3.01843969       5.64393880        1       1.19463551      -1.18436623       0.49520266
C        2.93333390      -2.71775667       6.45260408        1       1.31680381      -0.29379821       2.47104287
O        2.79363087      -1.32745270       6.97294786        1      -0.97562492      -2.30458283      -1.66051257
C        1.51365498      -0.82309369       6.45420673        1       0.14005280      -0.92625570       0.44730753
H        1.43611601      -1.52916471       4.40669897        1      -0.35217223      -0.23140062      -0.00984550
H        0.08165198      -2.15373985       5.44213369        1       0.31098038      -0.33331126      -0.19475198
O        3.73234394      -3.56337373       6.82757976        1      -1.71577382       2.86246014      -0.88680768
H        1.61478701       0.10957425       5.85633590        1       0.22541493      -0.23445642       0.93327779
H        0.72321799      -0.73107575       7.31430080        1       1.49753308      -0.12138997      -1.40006757
C       -5.12971282       2.90199766      -1.31672595        2      -0.91157389      -1.10885584       1.21470642
O       -4.38816762       3.83344946      -1.08760999        2      -1.67189121      -2.28827095      -0.48011553
O       -5.63668800       1.89895044      -0.31875600        2      -0.30371785       2.31884789      -4.06965780
O       -5.76929069       2.48916564      -2.44552301        2       1.55582118       0.76394033       0.44008791
C       -5.12220168       2.01949749       0.93495102        2      -0.60091066       0.75547832       0.91287625